<?xml version="1.0"?>
<VTKFile type="UnstructuredGrid"  version="0.1"  >
<UnstructuredGrid>
<Piece  NumberOfPoints="16803" NumberOfCells="32202">
<Points>
<DataArray  type="Float64"  NumberOfComponents="3"  format="ascii">0.139 0.28 0  0.1376000000000014 0.28 0  0.1379751288694068 0.2789751288694001 0  0.1368802006666296 0.2788061341781035 0  0.139 0.2785999999999874 0  0.1362000000000038 0.28 0  0.137835508776024 0.277888907638603 0  0.1347999999999976 0.28 0  0.1334 0.28 0  0.1341032791232803 0.278782724032217 0  0.1355 0.2787984837430916 0  0.1363900962351843 0.2773903291519245 0  0.1327185050153635 0.2787544409349105 0  0.1320000000000013 0.28 0  0.139 0.2771999999999778 0  0.1377875644346995 0.2764999999999753 0  0.1347945367824132 0.2775533789145986 0  0.133419090878487 0.2775585836871308 0  0.1312693531140275 0.2787104521694505 0  0.130600000000006 0.28 0  0.1292000000000095 0.28 0  0.1297586676337225 0.2786421830080903 0  0.1278000000000206 0.28 0  0.1283593144840699 0.2786532569701938 0  0.136614033566989 0.2760544059458631 0  0.1318958317105534 0.2774700635056664 0  0.1269658505432111 0.2786285017868364 0  0.1264000000000252 0.28 0  0.1250000000000298 0.28 0  0.1256062399909937 0.2786755522927038 0  0.1236000000000317 0.28 0  0.1243076289956493 0.2787836559309291 0  0.139 0.2757999999999721 0  0.1353271367319419 0.2761885546297994 0  0.1375657178373808 0.2750883862138095 0  0.1338032576001968 0.2762126197766149 0  0.1324032856932832 0.2762037446466284 0  0.1304576449667039 0.2773918563901187 0  0.1289473839810223 0.2773957890707205 0  0.1275198865852331 0.2773708405549852 0  0.1229757800312403 0.2787616087260045 0  0.1360353580576158 0.275042076062199 0  0.122200000000033 0.28 0  0.131107110595455 0.2762013032057599 0  0.1261958266120433 0.277354015141864 0  0.1248978863140152 0.2773680643962775 0  0.1237700233452104 0.2776820644400238 0  0.1366853981651066 0.2740961521083429 0  0.1214741567701957 0.2784665939096424 0  0.139 0.2743999999999725 0  0.134511212746251 0.2750048913247792 0  0.1331112479511105 0.2749949344481095 0  0.1317113090070712 0.2749810454508302 0  0.1296398150619666 0.2761787575614124 0  0.1282076871225175 0.2761786314423025 0  0.1268034072305192 0.2761668500867801 0  0.1225343863047961 0.277474767385096 0  0.1353835188310563 0.2737091025661112 0  0.1378104752201687 0.2736603173555077 0  0.1208000000000355 0.28 0  0.1194000000000303 0.28 0  0.1199491177555358 0.278623857164783 0  0.1180000000000284 0.28 0  0.1185538216899963 0.2786221828255504 0  0.1303113018673203 0.2749775294649049 0  0.1254174129766325 0.2761570862077077 0  0.124008659604051 0.2762798768746078 0  0.1232469306229069 0.2768792630209675 0  0.1366319208793114 0.2729808783440869 0  0.1215420853561229 0.277100899867262 0  0.1171654976846604 0.2786433248119011 0  0.1166000000000222 0.28 0  0.139 0.2729999999999737 0  0.1338191981225494 0.2737879626675976 0  0.1324192272781798 0.2737789259181767 0  0.1310192575325716 0.2737697220398458 0  0.1289181288078564 0.2749676304559448 0  0.1275113629670327 0.2749590318223485 0  0.1261113951576162 0.2749495334366742 0  0.1226038037230583 0.2760927350283153 0  0.1356758210989495 0.2724110192664995 0  0.1377958883199218 0.2722937615480416 0  0.1205373007930745 0.2774113073205699 0  0.1191332188571156 0.2773518402693043 0  0.1177181017217543 0.2773067369337242 0  0.1157689746187712 0.2786188385043147 0  0.1152000000000127 0.28 0  0.1138000000000146 0.28 0  0.1144712639992811 0.2786566951772013 0  0.1124000000000089 0.28 0  0.1131000000000115 0.2787875644347002 0  0.1345157847689696 0.2725019731863946 0  0.129620420567985 0.2737604023064092 0  0.1247114344637371 0.2749389527316531 0  0.1366294122491033 0.2716833204848027 0  0.1211447834239299 0.2760916518945782 0  0.1163520880773901 0.2773121906078176 0  0.1120248711306053 0.2789751288693993 0  0.111 0.28 0  0.139 0.2715999999999749 0  0.1331254294006967 0.2725700626928381 0  0.1317272131978245 0.2725619146147852 0  0.1303272434522159 0.2725527107364545 0  0.1282206399157449 0.2737511340141652 0  0.1268193493142482 0.2737419554827284 0  0.125419382134062 0.273732361387021 0  0.1233115126876951 0.2749224523707534 0  0.1353137810477952 0.2711732753089516 0  0.1377925406418623 0.270902251932839 0  0.1198069931704793 0.2761303267570468 0  0.121911534435171 0.2749145424499227 0  0.1184035882372035 0.276111705863322 0  0.1170036184915928 0.2761025019849917 0  0.1149873522962745 0.2773418794331893 0  0.1134813197624989 0.2772897820141455 0  0.1121283615890268 0.2778907281668497 0  0.111 0.2786000000000082 0  0.1338246162535145 0.2713571433952943 0  0.1289272737066049 0.272543506858122 0  0.1240194187292603 0.2737221930311094 0  0.1366141776475235 0.2703354632873226 0  0.1205115221549765 0.2749118083590927 0  0.1156036487459818 0.2760932981066605 0  0.139 0.2701999999999762 0  0.1324331228800924 0.2713529032775509 0  0.1310351991174685 0.2713449033113936 0  0.1296352293718603 0.2713356994330625 0  0.1275273041307425 0.2725342771594386 0  0.1261273354485291 0.2725249115317989 0  0.1247273667212208 0.272515552763702 0  0.122619439058916 0.2737144987698618 0  0.1344799601429151 0.2701184976064311 0  0.1355642592334002 0.2699426713019586 0  0.1377953653589709 0.2695135115971535 0  0.1191115455565758 0.2749036468354139 0  0.1212194693133086 0.2737052948915315 0  0.1177115741568445 0.2748946945599302 0  0.1163116044112354 0.2748854906815986 0  0.114277885290002 0.2760521821728208 0  0.1121639786410451 0.2764918936828318 0  0.111 0.2772000000000133 0  0.1331431245283299 0.2701462997646623 0  0.1282352596262493 0.2713264955547303 0  0.1233273967535322 0.2725063826653829 0  0.1365960465053339 0.2688603148142416 0  0.1198195009855225 0.2736958753536176 0  0.1149212203303461 0.2748717106257458 0  0.1131400709757257 0.2759289195272315 0  0.139 0.2687999999999761 0  0.1317431547827206 0.2701370958863323 0  0.1303431850371121 0.2701278920080015 0  0.1289432152915032 0.2701186881296704 0  0.1268352901769939 0.2713172465986371 0  0.125435320510269 0.2713080307215013 0  0.1240353508141058 0.2712988193226344 0  0.1219274249785609 0.2724974874664707 0  0.133851080193582 0.2689384923396007 0  0.1351725459080322 0.2688918840897411 0  0.1378745507271478 0.268115763530016 0  0.118419529822096 0.2736868871348692 0  0.1205274552329544 0.2724882835881403 0  0.1170195600764874 0.273677683256538 0  0.1156195903308784 0.2736684793782049 0  0.1135661842872055 0.2748450542432139 0  0.1122109868978769 0.2749656855231453 0  0.111 0.2758000000000144 0  0.1324511104479728 0.26892928846127 0  0.1275432455458908 0.2701094842513415 0  0.1226353809820415 0.2712896285948415 0  0.1358597056615643 0.2675695356759041 0  0.1369756813992393 0.2673999999999714 0  0.1191274854873474 0.2724790797098091 0  0.1142196205852687 0.2736592754998704 0  0.139 0.2673999999999704 0  0.1310511407023634 0.2689200845829407 0  0.1296511709567546 0.2689108807046098 0  0.1282512012111433 0.2689016768262809 0  0.126143275800283 0.2701002803730124 0  0.1247433060546752 0.2700910764946835 0  0.1233433363090667 0.2700818726163526 0  0.1212354108982066 0.2712804761630797 0  0.1331524865852965 0.2677152540876157 0  0.1345459518536411 0.2677213828931734 0  0.137854323189656 0.2666999999999737 0  0.11772751574174 0.2724698758314775 0  0.1198354411526006 0.2712712722847481 0  0.1163291085376746 0.2724615681585388 0  0.1149369514997826 0.2724568453071765 0  0.1129213895580168 0.2736547944124372 0  0.111 0.2744000000000156 0  0.1317590963676151 0.2677122771578799 0  0.1268512314655346 0.2688924729479518 0  0.121943366563459 0.2700726687380207 0  0.1351867201478051 0.2664017430610484 0  0.1365713000177196 0.2661843613173203 0  0.1184354714069933 0.2712620684064169 0  0.1136007974163052 0.2724586263187647 0  0.1118114508424207 0.2736928676322121 0  0.139 0.2659999999999604 0  0.1303591266220042 0.2677030732795503 0  0.1289591568763948 0.2676938694012204 0  0.1275591871307855 0.2676846655228922 0  0.1254512617199277 0.2688832690696227 0  0.1240512919743199 0.2688740651912924 0  0.1226513222287121 0.2688648613129616 0  0.1205433968178529 0.2700634648596883 0  0.1324670520328665 0.2665044697328177 0  0.1338406286161014 0.2664856139409527 0  0.1378060215627723 0.2653027500691715 0  0.1170355016613847 0.2712528645280852 0  0.1191434270722461 0.2700542609813564 0  0.1156355319157746 0.271243660649751 0  0.11429181366573 0.2712667201656087 0  0.1122351498248546 0.2723816639781962 0  0.111 0.2730000000000168 0  0.131067082287256 0.2664952658544868 0  0.1261592173851787 0.2676754616445617 0  0.1212513524831047 0.2688556574346293 0  0.1345099738509517 0.2652679446147115 0  0.1356660236380892 0.2652968930509728 0  0.1366191128829423 0.2646165004151954 0  0.1177434573266383 0.2700450571030252 0  0.1131658706894054 0.2714188453183769 0  0.139 0.2645999999999482 0  0.1296671125416459 0.2664860619761591 0  0.1282671427960368 0.2664768580978305 0  0.1268671730504298 0.2664676542195003 0  0.1247592476395716 0.2676662577662318 0  0.1233592778939642 0.267657053887902 0  0.1219593081483571 0.2676478500095707 0  0.1198513827374996 0.2688464535562959 0  0.1317750379525063 0.265287458429423 0  0.1331750076981166 0.2652966623077515 0  0.1377875644346711 0.2638999999999386 0  0.1163434875810293 0.2700358532246915 0  0.118451412991892 0.2688372496779643 0  0.1149507485439573 0.2700266372862266 0  0.1134585311306469 0.2700944500357421 0  0.1121821219270822 0.2708393817977439 0  0.111 0.271600000000018 0  0.1303750682068972 0.2652782545510933 0  0.1254672033048224 0.2664584503411708 0  0.1205593384027503 0.2676386461312383 0  0.1352917554095784 0.2639990024913635 0  0.133841802791678 0.2640965862169854 0  0.1365751288693476 0.2631999999999238 0  0.1170514432462841 0.2688280457996333 0  0.139 0.2631999999999425 0  0.1289750984612889 0.2652690506727657 0  0.1275751287156804 0.2652598467944389 0  0.1261751589700724 0.2652506429161102 0  0.1240672335592163 0.2664492464628413 0  0.1226672638136089 0.2664400425845109 0  0.1212672940680019 0.26643083
[...]
<PointData  Scalars="f_52"> 
<DataArray  type="Float64"  Name="f_52"  format="ascii">0.0000000000000000e+00  0.0000000000000000e+00  2.1504623753552487e-03  2.5050606569615983e-03  2.9375852550791795e-03  0.0000000000000000e+00  4.4296503567823912e-03  0.0000000000000000e+00  0.0000000000000000e+00  2.5541788663243302e-03  2.5211106761760236e-03  5.4758057498840640e-03  2.6135243731395170e-03  0.0000000000000000e+00  5.8751655463435155e-03  7.3439606064733057e-03  5.1336814568744525e-03  5.1227600904689783e-03  2.7058244663451629e-03  0.0000000000000000e+00  0.0000000000000000e+00  2.8490710210698198e-03  0.0000000000000000e+00  2.8258341500177896e-03  8.2789354227303710e-03  5.3084984342377656e-03  2.8777766203507589e-03  0.0000000000000000e+00  0.0000000000000000e+00  2.7790512804129505e-03  0.0000000000000000e+00  2.5522200752300982e-03  8.8127482391648776e-03  7.9974554190292181e-03  1.0305910622203469e-02  7.9469594117431604e-03  7.9655798020432152e-03  5.4725970902475881e-03  5.4643444826849782e-03  5.5166922948651177e-03  2.5984807312526494e-03  1.0403080149671623e-02  0.0000000000000000e+00  7.9707019536795487e-03  5.5519957640229062e-03  5.5225158904508003e-03  4.8636579455765671e-03  1.2387886968079334e-02  3.2175004704798563e-03  1.1750334789595425e-02  1.0481101932060888e-02  1.0501993140330530e-02  1.0531135104207794e-02  8.0180078887873707e-03  8.0182716356171652e-03  8.0429912271104617e-03  5.2986227457433492e-03  1.3200021028752751e-02  1.3302386047482842e-02  0.0000000000000000e+00  0.0000000000000000e+00  2.8875190363323346e-03  0.0000000000000000e+00  2.8910317891623167e-03  1.0538511433742478e-02  8.0634775279597431e-03  7.8058282945537589e-03  6.5481524732550946e-03  1.4728033947527567e-02  6.0830972407516660e-03  2.8466695591381603e-03  0.0000000000000000e+00  1.4687913378424294e-02  1.3034548859348193e-02  1.3053509162273172e-02  1.3072820226525079e-02  1.0559281292829925e-02  1.0577322620687397e-02  1.0597251868277976e-02  8.1985015745189641e-03  1.5923752324152746e-02  1.6169791536174059e-02  5.4317779188754649e-03  5.5565548443570201e-03  5.6511930488427776e-03  2.8980477863998614e-03  0.0000000000000000e+00  0.0000000000000000e+00  2.8186136982852310e-03  0.0000000000000000e+00  2.5440153345180076e-03  1.5732904230755063e-02  1.3092374501906734e-02  1.0619452088098875e-02  1.7450661303012292e-02  8.2007738050533571e-03  5.6397490915029635e-03  2.1504541166522699e-03  0.0000000000000000e+00  1.7625491978927290e-02  1.5590032949755854e-02  1.5607128821453308e-02  1.5626440002135422e-02  1.3111820892448766e-02  1.3131078996919928e-02  1.3151209085813617e-02  1.0654073310118519e-02  1.8520874001245625e-02  1.9089556016961398e-02  8.1196224241808172e-03  1.0670669316189063e-02  8.1586930915268779e-03  8.1780043848429310e-03  5.5774526867412560e-03  5.6867666808603631e-03  4.4258172317479336e-03  2.9375750724475605e-03  1.8135067434808982e-02  1.5645751223408999e-02  1.3172544104747190e-02  2.0278831821274386e-02  1.0676405566118987e-02  8.1973155838346162e-03  2.0563072103163289e-02  1.8143963385748200e-02  1.8160748485863625e-02  1.8180059724626156e-02  1.5665116685282598e-02  1.5684767406563035e-02  1.5704403745529966e-02  1.3188687746609183e-02  2.0734082874035466e-02  2.1103013978684467e-02  2.2003510142435404e-02  1.0693529600940639e-02  1.3207999038851111e-02  1.0712312837645153e-02  1.0731623929344571e-02  8.2835871446605633e-03  7.3609520966106427e-03  5.8751503152770709e-03  2.0675745644476256e-02  1.8199371024798409e-02  1.5723644183892962e-02  2.3374093473397320e-02  1.3227762875526817e-02  1.0760536998628339e-02  8.5422232470240625e-03  2.3500652035153058e-02  2.0695056852362143e-02  2.0714368118375886e-02  2.0733679457972734e-02  1.8218776964559289e-02  1.8238113527052537e-02  1.8257440697834342e-02  1.5742307799079577e-02  2.3210053480728798e-02  2.3307850369826480e-02  2.4936364698324661e-02  1.3246621550650201e-02  1.5761619108198916e-02  1.3265932665144614e-02  1.3285243697219666e-02  1.0816467537380510e-02  1.0563350823128167e-02  8.8127329780688379e-03  2.3229364963502832e-02  2.0752990853918851e-02  1.8276724483454600e-02  2.6082497238702311e-02  2.6438229542717660e-02  1.5780930358118853e-02  1.3304554689090217e-02  2.6438229371376840e-02  2.3248676372078246e-02  2.3267987791221297e-02  2.3287299245561117e-02  2.0772302290565405e-02  2.0791613747340967e-02  2.0810925204300727e-02  1.8295927894107597e-02  2.5776738863313799e-02  2.5763879655131373e-02  2.7907018164817284e-02  1.5800241519548976e-02  1.8315239209332663e-02  1.5817672135090340e-02  1.5827580852333229e-02  1.3313956040449829e-02  1.1750314590630620e-02  2.5782984532199474e-02  2.3306610740648988e-02  2.0830236645547735e-02  2.8532842939738505e-02  2.8988968459488174e-02  1.8334550440934263e-02  1.5823843192858386e-02  1.3234067344892870e-02  2.9375807883308857e-02  2.5802296026434624e-02  2.5821607548303652e-02  2.5840919109133692e-02  2.3325922263427980e-02  2.3345233796796823e-02  2.3364545324700982e-02  2.0849548053474661e-02  2.8317292661587994e-02  2.8356857920842971e-02  3.0838827468909813e-02  1.8353861556186089e-02  2.0868859403551838e-02  1.8373172608625161e-02  1.8324786572231373e-02  1.5985328746173196e-02  1.4687888097139008e-02  2.8336604182671952e-02  2.5860230700376050e-02  2.3383856832918378e-02  3.0911858600537519e-02  3.0851118338833389e-02  3.2278764314094301e-02  2.0888170673553426e-02  1.8005586581497944e-02  3.2313387202023154e-02  2.8355915765390857e-02  2.8375227394878456e-02  2.8394539057395599e-02  2.5879542308263410e-02  2.5898853918877446e-02  2.5918165520556920e-02  2.3403168307747080e-02  3.0870912273562610e-02  3.0851600726365697e-02  3.3782177662734614e-02  2.0907481881923876e-02  2.3422479737067781e-02  2.0926818455985721e-02  2.0784527866489592e-02  1.9221457110131034e-02  1.7625471136167577e-02  3.0890223908934197e-02  2.8413850739168609e-02  2.5937477105392601e-02  3.3574443400335115e-02  3.3369686909662688e-02  3.5250967620057701e-02  2.3441791121997166e-02  3.5250967419393132e-02  3.0909535601246898e-02  3.0928847337018537e-02  3.0948159093197623e-02  2.8433162427880680e-02  2.8452474113606602e-02  2.8471785789881996e-02  2.5956788671667098e-02  3.3424531995296297e-02  3.3405220469587986e-02  3.6719320513468288e-02  2.3461102468631964e-02  2.5976100222385307e-02  2.3480565692280433e-02  2.2031845951339502e-02  2.0563054070764527e-02  3.3443843732529913e-02  3.0967470856933438e-02  2.8491097456023861e-02  3.5615036138856443e-02  3.5939528462890502e-02  3.6778918173005298e-02  3.8185926965588604e-02  2.5995411749059703e-02  2.3500636508560453e-02  3.8188547155366688e-02  3.3463155544868797e-02  3.3482467377255118e-02  3.3501779213775319e-02  3.0986782619858634e-02  3.1006094376099802e-02  3.1025406122472697e-02  2.8510409121285080e-02  3.5976610869397206e-02  3.5958839932307189e-02  3.9657337013061823e-02  2.6014723221245512e-02  2.8529720808736073e-02  2.6204604751124218e-02  2.3500635657343307e-02  2.4969426023634125e-02  3.8369074987702527e-02  3.5997463693680912e-02  3.3521091048846020e-02  3.1044717859216923e-02  3.8445599919803695e-02  3.9650859959961239e-02  4.1116882875895995e-02  2.8566063578190300e-02  4.1126126970589892e-02  3.6016775604343847e-02  3.6036087509095441e-02  3.6055399410095404e-02  3.3540402878629590e-02  3.3559714699420533e-02  3.3579026508074976e-02  3.1064029587165438e-02  3.8504535216968068e-02  3.8530451063045812e-02  4.2589069604374745e-02  2.8667555366074130e-02  3.1083341280255149e-02  2.7834341207491835e-02  2.6438217489094858e-02  4.1027455948967832e-02  3.8551083802372231e-02  3.6074711307393877e-02  3.3598338303045074e-02  4.1074099295019470e-02  4.1037522535849191e-02  4.2565293061611359e-02  4.4037866814109143e-02  2.8991527998467638e-02  3.1105627981947825e-02  4.4063707001948844e-02  3.8570395758403556e-02  3.8589707714000901e-02  3.8609019670177484e-02  3.6094023198777338e-02  3.6113335080444425e-02  3.6132646947192239e-02  3.3617650084509156e-02  4.1062698558214157e-02  4.1084464421996543e-02  4.5527215959015814e-02  3.1193061787244378e-02  3.3636961880764135e-02  2.9375800632442620e-02  3.1026470463792304e-02  4.3579535103318995e-02  4.3757814073487174e-02  4.1104703975839992e-02  3.8628331625744278e-02  3.6151958798946837e-02  4.3598590422566363e-02  4.5377460147383718e-02  4.7001286458852723e-02  3.3659744663820969e-02  4.7001286969014837e-02  4.1124015970308417e-02  4.1143327974264753e-02  4.1162639984509343e-02  3.8647643578522697e-02  3.8666955524636906e-02  3.8686267453473741e-02  3.6171270667817411e-02  4.3618836961959347e-02  4.3639012156893413e-02  4.8470076866393971e-02  3.3707447782462256e-02  3.6191161138290490e-02  3.2313383645909605e-02  4.6134696249167613e-02  4.6174788556737255e-02  4.3658324180975122e-02  4.1181951999589600e-02  3.8705579337102496e-02  4.6507522907645052e-02  4.6154008261704946e-02  4.8589038692955402e-02  4.9989249829245269e-02  3.3770683250626467e-02  3.6181501098053424e-02  4.9938866719406040e-02  4.3677636224668769e-02  4.3696948280871596e-02  4.3716260346772284e-02  4.1201264020243433e-02  4.1220576049290789e-02  4.1239888089175523e-02  3.8724891183269106e-02  4.6173320274027256e-02  4.6192632334921678e-02  5.1407656741577774e-02  3.6454984505945913e-02  3.8687115552960179e-02  3.5250957775604483e-02  4.8678904746583408e-02  4.8689966240392964e-02  4.8638518937772407e-02  4.6211944420897232e-02  4.3735572424334436e-02  4.1257614390708609e-02  4.8707903282108493e-02  5.1702456348215291e-02  5.2883939788817787e-02  3.8420411290721351e-02  5.2876446809275293e-02  4.6231256520314498e-02  4.6250568629518610e-02  4.6269880749956520e-02  4.3754884521813552e-02  4.3774196658993819e-02  4.3793508878759609e-02  4.1268997648680389e-02  4.8726940410299145e-02  4.8746252558345249e-02  5.0700605822841145e-02  5.4346485775533651e-02  3.8188540262243026e-02  3.9667128784017909e-02  4.1217801420852247e-02  5.1224548964522651e-02  5.1140291184021212e-02  5.1242348464554749e-02  4.8765564706649056e-02  4.6289192888317510e-02  4.3814347452864874e-02  5.1261248407898266e-02  5.4390192008380633e-02  5.3432717268197719e-02  5.5814027370672162e-02  5.5814026945719145e-02  4.8784876857758841e-02  4.8804189015042791e-02  4.8823501183636750e-02  4.6308505057898075e-02  4.6327817275419937e-02  4.6346933762183060e-02  4.3852587048500709e-02  5.1280560640000777e-02  5.1299872845379506e-02  5.7282817047286008e-02  4.1126123995974775e-02  4.2678288818314647e-02  5.3746749303775716e-02  5.3774867893023950e-02  5.3795395763194205e-02  5.7307818964988072e-02  5.1319185040108184e-02  4.8842813372069221e-02  4.6360829562491962e-02  4.4063704263411697e-02  5.3814868695730086e-02  5.6022584665330374e-02  5.8751607154477026e-02  5.8751606963581067e-02  5.1338497233195876e-02  5.1357809430589665e-02  5.1377121637081268e-02  4.8862125593201654e-02  4.8881437858613548e-02  4.8899575630495296e-02  4.6347835806370009e-02  5.3834180950710533e-02  5.3853493186431324e-02  5.6291240053703707e-02  6.0220397061511458e-02  4.4063707384326467e-02  4.5931260418873840e-02  5.6308625754953330e-02  5.6329864490145334e-02  5.6349176766232349e-02  6.0220000632055605e-02  5.8808040880614081e-02  5.3872805413734945e-02  5.1396433858745524e-02  4.8903697617198552e-02  5.6368489045428335e-02  6.1689120700485739e-02  6.1689187036732596e-02  5.3892117640659272e-02  5.3911429871749871e-02  5.3930742107839089e-02  5.1415746112277588e-02  5.1433078073924984e-02  5.1443663245441314e-02  4.8750921275849776e-02  5.6387801309867668e-02  5.6407113564869292e-02  5.8832215733098790e-02  6.3157977112238112e-02  4.7001289332861483e-02  5.8861744055835420e-02  5.8883484861219464e-02  5.8902797147532479e-02  6.3041143222692927e-02  6.1525674154072348e-02  5.6426425818372879e-02  5.3950054345986015e-02  5.1386202478626207e-02  4.8538761963070984e-02  5.8922109423652030e-02  6.1379168095280032e-02  6.4567239274456803e-02  6.4626767420576811e-02  5.6445738076444062e-02  5.6465050342139798e-02  5.6484362614868562e-02  5.3969366581190316e-02  5.3988678890107430e-02  5.3943745502837002e-02  5.1401169642344348e-02  5.8941421695099742e-02  5.8960733967610666e-02  6.1395968400434452e-02  6.6095557663619534e-02  4.9938863284336284e-02  6.1416888085491610e-02  6.1437105254893071e-02  6.1456411082990346e-02  6.4180018843690054e-02  6.5855292715436262e-02  5.8980046247173817e-02  5.6503674893988574e-02  5.3513528051992269e-02  6.1475729810614471e-02  6.3932369895327024e-02  6.7564347371715419e-02  6.7564347729573246e-02  5.8999358539687380e-02  5.9018670850844425e-02  5.9037983185603701e-02  5.6522987217990726e-02  5.6542299662943760e-02  5.6276587089016880e-02  5.4559932861904178e-02  5.2876446187729034e-02  6.1495042093501144e-02  6.1514354385975349e-02  6.3951612565129046e-02  6.9033137957686577e-02  6.3971181133865615e-02  6.3990686927564211e-02  6.4010030385113548e-02  6.6916255850182488e-02  6.9011079743852649e-02  6.6532257204658662e-02  6.1533666693785884e-02  5.9057295557170611e-02  6.4029350199690041e-02  6.6486409158256390e-02  7.0501928846316966e-02  7.0501928071368153e-02  6.1552979025705501e-02  6.1572291394342560e-02  6.1591603809754085e-02  5.9076607961188195e-02  5.9095920394930133e-02  5.7160902945775610e-02  5.5814028839400953e-02  6.4048662499163134e-02  6.4067974812608217e-02  6.6505807798733108e-02  7.1976413984631643e-02  6.6524988542321778e-02  6.6544330754972750e-02  6.6563658285447497e-02  6.9002636237701753e-02  7.2175762965187698e-02  6.9028421241331697e-02  6.4087287147186756e-02  6.1610916235273094e-02  5.8955408872983485e-02  6.6582970592341625e-02  6.9041313366763044e-02  7.3473683353768568e-02  7.1100050249825325e-02  7.3439508636879675e-02  6.4106599514185611e-02  6.4125911928874929e-02  6.4145224402574821e-02  6.1649029974271990e-02  6.1758832911175197e-02  5.8751609230196913e-02  6.0548888340846076e-02  6.6602282908366672e-02  6.6621595238469666e-02  6.9059562552256218e-02  7.4908299170095949e-02  6.9078680767068787e-02  6.9097966347115514e-02  6.9117278668625229e-02  7.1481523195415939e-02  7.4946869854269280e-02  7.3829243730460306e-02  7.1575835172678806e-02  6.6640907589652867e-02  6.4171485348122712e-02  6.9136590989902630e-02  7.1593764022903322e-02  7.6383275332400385e-02  7.6377089464009743e-02  6.6660219968963930e-02  6.6679532373867895e-02  6.6698844762272974e-02  6.4225539706485021e-02  6.3209401084141442e-02  6.1689188432008962e-02  6.9155903316766021e-02  6.9175215654128666e-02  7.1612973820382314e-02  7.7845879888655628e-02  7.1632274389009626e-02  7.1651586732292688e-02  7.1670899062849527e-02  7.4096644700023237e-02  7.6466788118875875e-02  7.7853338089578325e-02  7.4126207240668332e-02  6.9194528006273737e-02  6.6718157039620182e-02  6.4460155234872654e-02  7.1690211390612532e-02  7.4146978819561143e-02  7.9316943856598696e-02  7.6622380853779384e-02  7.9261505715787259e-02  7.9314670093207182e-02  6.9213840376566957e-02  6.9233152763035419e-02  6.9251145609271356e-02  6.6713285234562741e-02  6.6393722824264589e-02  6.4626771167483887e-02  7.1709523720816598e-02  7.1728836055253042e-02  7.4166553181558278e-02  8.0768719751500517e-02  7.4185894795095381e-02  7.4205207133091741e-02  7.4224519463551131e-02  7.6659973999812614e-02  8.0762938578069682e-02  7.6681477317872809e-02  7.1748148393934549e-02  6.9260719315536928e-02  7.4243831792516063e-02  7.6700994415718468e-02  8.2161529841422401e-02  7.9215664538301728e-02  8.2075417653575747e-02  8.2252249910372680e-02  7.1767460744536299e-02  7.1785249322190367e-02  7.1796942733088787e-02  6.9131616402737350e-02  6.7564353764597435e-02  7.4263144121757302e-02  7.4282456448208481e-02  7.6720230303101211e-02  8.3721041884700628e-02  7.6739515208319314e-02  7.6758827537791882e-02  7.6778139866509110e-02  7.9218686140726108e-02  8.1730881971550040e-02  8.3941203403072817e-02  7.9235732016596741e-02  7.4301768763987586e-02  7.1768191983191551e-02  6.9033139940617549e-02  7.6797452197053473e-02  7.9254600924820034e-02  8.4663755257268228e-02  8.1753842861824563e-02  8.4297140322554406e-02  8.5189831736272120e-02  7.4321081059616739e-02  7.4340393399449936e-02  7.4304848169864657e-02  7.1894617565501140e-02  7.0501926561715195e-02  7.6816764529050494e-02  7.6836076858089672e-02  7.9273842856581650e-02  8.6786929641297222e-02  7.9293135615224303e-02  7.9312447940249400e-02  7.9331760270532223e-02  8.1769900757949168e-02  8.4290435453527254e-02  8.6784177031295429e-02  8.1788825422224751e-02  8.6755790976844091e-02  7.6855389179928055e-02  7.3952948254247766e-02  7.9351072608508641e-02  8.1808151722878544e-02  8.4303814734164040e-02  8.6825289204223777e-02  8.8127414386346858e-02  7.6874701531519526e-02  7.6894014035591179e-02  7.6706486055646408e-02  7.5090593480824530e-02  7.3439508789615499e-02  7.9370384956221965e-02  7.9389697314022123e-02  8.1827443694688334e-02  8.9426084684162133e-02  8.1846756012936756e-02  8.1866068338468087e-02  8.1885380674581204e-02  8.4323159003428030e-02  8.6839111649263959e-02  8.9333814626255517e-02  8.4342445641907543e-02  8.9347171824409058e-02  8.9570087717274982e-02  7.9409009679916570e-02  8.1904693027053152e-02  8.4361756191083784e-02  8.6857621170611327e-02  8.9373675518759743e-02  9.1064986939266068e-02  7.9428322048118713e-02  7.9422255229437050e-02  7.7869146123796085e-02  7.6377091874999470e-02  8.1924005404024988e-02  8.1943317810536154e-02  8.4381064083778184e-02  9.1868115094011590e-02  9.2217316994621781e-02  8.4400376402374133e-02  8.4419688729940989e-02  8.4439001072281902e-02  8.6876752746845934e-02  8.9391840130104566e-02  9.1887476592127038e-02  8.6896063536946455e-02  9.1906983708666581e-02  8.1961807745836210e-02  7.9329816014892085e-02  8.4458313438722454e-02  8.6915372152077175e-02  8.9411080626930636e-02  9.1926274900555105e-02  9.4002569925840856e-02  8.1977712636061267e-02  8.2082907002417840e-02  7.9314671413058715e-02  8.0783460921451694e-02  8.4477625842984155e-02  8.4496938302452460e-02  8.6934684465212159e-02  9.4388597902542337e-02  9.4184212152463281e-02  8.6953996782618781e-02  8.6973309108728553e-02  8.6992621449269059e-02  8.9430374259273915e-02  9.1945417070778523e-02  9.4441100717800930e-02  8.9449681417092752e-02  9.4460437426058710e-02  9.5471360002225947e-02  8.4515545755833824e-02  8.7011933811330822e-02  8.9468992529831079e-02  9.1964689060552857e-02  9.4479730945140894e-02  9.6940152551743528e-02  8.4535562795736638e-02  8.3684427854959845e-02  8.2252251162235487e-02  8.7031246192437392e-02  8.7050483655923216e-02  8.9488304839003135e-02  9.6969841642098681e-02  9.6975662110339700e-02  8.9507617150820146e-02  8.9526929467271088e-02  8.9546241790162670e-02  9.1983993219057703e-02  9.4499029245646474e-02  9.6993852055180130e-02  9.2003300599198659e-02  9.7014028342168629e-02  9.8408942574575553e-02  8.4825643462263192e-02  8.7069753211725345e-02  8.9565554121553773e-02  9.2022612901997439e-02  9.4518305301283634e-02  9.7033400465293670e-02  9.9477743095585811e-02  9.9877732514385281e-02  8.7096973336880087e-02  8.6884589576771351e-02  8.5189833713394461e-02  8.9584866460127671e-02  8.9604372367356036e-02  9.2041925204442321e-02  9.9448501074067663e-02  9.9985947138739595e-02  9.2061237505875471e-02  9.2080549803470399e-02  9.2099862093157014e-02  9.4537608676589030e-02  9.7052632641671729e-02  9.9548727799467426e-02  9.4556920972029279e-02  9.9568029623470763e-02  1.0134652239303479e-01  8.9624770029838388e-02  9.2119174380105043e-02  9.4576233268655829e-02  9.7071929048762981e-02  9.9587045460750367e-02  1.0188622083421231e-01  1.0208259644373302e-01  1.0281531213494169e-01  8.9620760816316286e-02  8.8127416163800432e-02  9.2138518996208868e-02  9.2154061667496318e-02  9.4595545563902900e-02  1.0151585057423256e-01  1.0284353309366497e-01  9.4614857853312570e-02  9.4634170129114195e-02  9.4653482379595658e-02  9.7091229047865213e-02  9.9606260902730420e-02  1.0210411566992338e-01  9.7110541339521503e-02  1.0212158858823725e-01  1.0443154059470514e-01  1.0428410200283109e-01  8.9596202301877870e-02  9.2153176561425673e