<?xml version="1.0"?>
<VTKFile type="UnstructuredGrid"  version="0.1"  >
<UnstructuredGrid>
<Piece  NumberOfPoints="16803" NumberOfCells="32202">
<Points>
<DataArray  type="Float64"  NumberOfComponents="3"  format="ascii">0.139 0.28 0  0.1376000000000014 0.28 0  0.1379751288694068 0.2789751288694001 0  0.1368802006666296 0.2788061341781035 0  0.139 0.2785999999999874 0  0.1362000000000038 0.28 0  0.137835508776024 0.277888907638603 0  0.1347999999999976 0.28 0  0.1334 0.28 0  0.1341032791232803 0.278782724032217 0  0.1355 0.2787984837430916 0  0.1363900962351843 0.2773903291519245 0  0.1327185050153635 0.2787544409349105 0  0.1320000000000013 0.28 0  0.139 0.2771999999999778 0  0.1377875644346995 0.2764999999999753 0  0.1347945367824132 0.2775533789145986 0  0.133419090878487 0.2775585836871308 0  0.1312693531140275 0.2787104521694505 0  0.130600000000006 0.28 0  0.1292000000000095 0.28 0  0.1297586676337225 0.2786421830080903 0  0.1278000000000206 0.28 0  0.1283593144840699 0.2786532569701938 0  0.136614033566989 0.2760544059458631 0  0.1318958317105534 0.2774700635056664 0  0.1269658505432111 0.2786285017868364 0  0.1264000000000252 0.28 0  0.1250000000000298 0.28 0  0.1256062399909937 0.2786755522927038 0  0.1236000000000317 0.28 0  0.1243076289956493 0.2787836559309291 0  0.139 0.2757999999999721 0  0.1353271367319419 0.2761885546297994 0  0.1375657178373808 0.2750883862138095 0  0.1338032576001968 0.2762126197766149 0  0.1324032856932832 0.2762037446466284 0  0.1304576449667039 0.2773918563901187 0  0.1289473839810223 0.2773957890707205 0  0.1275198865852331 0.2773708405549852 0  0.1229757800312403 0.2787616087260045 0  0.1360353580576158 0.275042076062199 0  0.122200000000033 0.28 0  0.131107110595455 0.2762013032057599 0  0.1261958266120433 0.277354015141864 0  0.1248978863140152 0.2773680643962775 0  0.1237700233452104 0.2776820644400238 0  0.1366853981651066 0.2740961521083429 0  0.1214741567701957 0.2784665939096424 0  0.139 0.2743999999999725 0  0.134511212746251 0.2750048913247792 0  0.1331112479511105 0.2749949344481095 0  0.1317113090070712 0.2749810454508302 0  0.1296398150619666 0.2761787575614124 0  0.1282076871225175 0.2761786314423025 0  0.1268034072305192 0.2761668500867801 0  0.1225343863047961 0.277474767385096 0  0.1353835188310563 0.2737091025661112 0  0.1378104752201687 0.2736603173555077 0  0.1208000000000355 0.28 0  0.1194000000000303 0.28 0  0.1199491177555358 0.278623857164783 0  0.1180000000000284 0.28 0  0.1185538216899963 0.2786221828255504 0  0.1303113018673203 0.2749775294649049 0  0.1254174129766325 0.2761570862077077 0  0.124008659604051 0.2762798768746078 0  0.1232469306229069 0.2768792630209675 0  0.1366319208793114 0.2729808783440869 0  0.1215420853561229 0.277100899867262 0  0.1171654976846604 0.2786433248119011 0  0.1166000000000222 0.28 0  0.139 0.2729999999999737 0  0.1338191981225494 0.2737879626675976 0  0.1324192272781798 0.2737789259181767 0  0.1310192575325716 0.2737697220398458 0  0.1289181288078564 0.2749676304559448 0  0.1275113629670327 0.2749590318223485 0  0.1261113951576162 0.2749495334366742 0  0.1226038037230583 0.2760927350283153 0  0.1356758210989495 0.2724110192664995 0  0.1377958883199218 0.2722937615480416 0  0.1205373007930745 0.2774113073205699 0  0.1191332188571156 0.2773518402693043 0  0.1177181017217543 0.2773067369337242 0  0.1157689746187712 0.2786188385043147 0  0.1152000000000127 0.28 0  0.1138000000000146 0.28 0  0.1144712639992811 0.2786566951772013 0  0.1124000000000089 0.28 0  0.1131000000000115 0.2787875644347002 0  0.1345157847689696 0.2725019731863946 0  0.129620420567985 0.2737604023064092 0  0.1247114344637371 0.2749389527316531 0  0.1366294122491033 0.2716833204848027 0  0.1211447834239299 0.2760916518945782 0  0.1163520880773901 0.2773121906078176 0  0.1120248711306053 0.2789751288693993 0  0.111 0.28 0  0.139 0.2715999999999749 0  0.1331254294006967 0.2725700626928381 0  0.1317272131978245 0.2725619146147852 0  0.1303272434522159 0.2725527107364545 0  0.1282206399157449 0.2737511340141652 0  0.1268193493142482 0.2737419554827284 0  0.125419382134062 0.273732361387021 0  0.1233115126876951 0.2749224523707534 0  0.1353137810477952 0.2711732753089516 0  0.1377925406418623 0.270902251932839 0  0.1198069931704793 0.2761303267570468 0  0.121911534435171 0.2749145424499227 0  0.1184035882372035 0.276111705863322 0  0.1170036184915928 0.2761025019849917 0  0.1149873522962745 0.2773418794331893 0  0.1134813197624989 0.2772897820141455 0  0.1121283615890268 0.2778907281668497 0  0.111 0.2786000000000082 0  0.1338246162535145 0.2713571433952943 0  0.1289272737066049 0.272543506858122 0  0.1240194187292603 0.2737221930311094 0  0.1366141776475235 0.2703354632873226 0  0.1205115221549765 0.2749118083590927 0  0.1156036487459818 0.2760932981066605 0  0.139 0.2701999999999762 0  0.1324331228800924 0.2713529032775509 0  0.1310351991174685 0.2713449033113936 0  0.1296352293718603 0.2713356994330625 0  0.1275273041307425 0.2725342771594386 0  0.1261273354485291 0.2725249115317989 0  0.1247273667212208 0.272515552763702 0  0.122619439058916 0.2737144987698618 0  0.1344799601429151 0.2701184976064311 0  0.1355642592334002 0.2699426713019586 0  0.1377953653589709 0.2695135115971535 0  0.1191115455565758 0.2749036468354139 0  0.1212194693133086 0.2737052948915315 0  0.1177115741568445 0.2748946945599302 0  0.1163116044112354 0.2748854906815986 0  0.114277885290002 0.2760521821728208 0  0.1121639786410451 0.2764918936828318 0  0.111 0.2772000000000133 0  0.1331431245283299 0.2701462997646623 0  0.1282352596262493 0.2713264955547303 0  0.1233273967535322 0.2725063826653829 0  0.1365960465053339 0.2688603148142416 0  0.1198195009855225 0.2736958753536176 0  0.1149212203303461 0.2748717106257458 0  0.1131400709757257 0.2759289195272315 0  0.139 0.2687999999999761 0  0.1317431547827206 0.2701370958863323 0  0.1303431850371121 0.2701278920080015 0  0.1289432152915032 0.2701186881296704 0  0.1268352901769939 0.2713172465986371 0  0.125435320510269 0.2713080307215013 0  0.1240353508141058 0.2712988193226344 0  0.1219274249785609 0.2724974874664707 0  0.133851080193582 0.2689384923396007 0  0.1351725459080322 0.2688918840897411 0  0.1378745507271478 0.268115763530016 0  0.118419529822096 0.2736868871348692 0  0.1205274552329544 0.2724882835881403 0  0.1170195600764874 0.273677683256538 0  0.1156195903308784 0.2736684793782049 0  0.1135661842872055 0.2748450542432139 0  0.1122109868978769 0.2749656855231453 0  0.111 0.2758000000000144 0  0.1324511104479728 0.26892928846127 0  0.1275432455458908 0.2701094842513415 0  0.1226353809820415 0.2712896285948415 0  0.1358597056615643 0.2675695356759041 0  0.1369756813992393 0.2673999999999714 0  0.1191274854873474 0.2724790797098091 0  0.1142196205852687 0.2736592754998704 0  0.139 0.2673999999999704 0  0.1310511407023634 0.2689200845829407 0  0.1296511709567546 0.2689108807046098 0  0.1282512012111433 0.2689016768262809 0  0.126143275800283 0.2701002803730124 0  0.1247433060546752 0.2700910764946835 0  0.1233433363090667 0.2700818726163526 0  0.1212354108982066 0.2712804761630797 0  0.1331524865852965 0.2677152540876157 0  0.1345459518536411 0.2677213828931734 0  0.137854323189656 0.2666999999999737 0  0.11772751574174 0.2724698758314775 0  0.1198354411526006 0.2712712722847481 0  0.1163291085376746 0.2724615681585388 0  0.1149369514997826 0.2724568453071765 0  0.1129213895580168 0.2736547944124372 0  0.111 0.2744000000000156 0  0.1317590963676151 0.2677122771578799 0  0.1268512314655346 0.2688924729479518 0  0.121943366563459 0.2700726687380207 0  0.1351867201478051 0.2664017430610484 0  0.1365713000177196 0.2661843613173203 0  0.1184354714069933 0.2712620684064169 0  0.1136007974163052 0.2724586263187647 0  0.1118114508424207 0.2736928676322121 0  0.139 0.2659999999999604 0  0.1303591266220042 0.2677030732795503 0  0.1289591568763948 0.2676938694012204 0  0.1275591871307855 0.2676846655228922 0  0.1254512617199277 0.2688832690696227 0  0.1240512919743199 0.2688740651912924 0  0.1226513222287121 0.2688648613129616 0  0.1205433968178529 0.2700634648596883 0  0.1324670520328665 0.2665044697328177 0  0.1338406286161014 0.2664856139409527 0  0.1378060215627723 0.2653027500691715 0  0.1170355016613847 0.2712528645280852 0  0.1191434270722461 0.2700542609813564 0  0.1156355319157746 0.271243660649751 0  0.11429181366573 0.2712667201656087 0  0.1122351498248546 0.2723816639781962 0  0.111 0.2730000000000168 0  0.131067082287256 0.2664952658544868 0  0.1261592173851787 0.2676754616445617 0  0.1212513524831047 0.2688556574346293 0  0.1345099738509517 0.2652679446147115 0  0.1356660236380892 0.2652968930509728 0  0.1366191128829423 0.2646165004151954 0  0.1177434573266383 0.2700450571030252 0  0.1131658706894054 0.2714188453183769 0  0.139 0.2645999999999482 0  0.1296671125416459 0.2664860619761591 0  0.1282671427960368 0.2664768580978305 0  0.1268671730504298 0.2664676542195003 0  0.1247592476395716 0.2676662577662318 0  0.1233592778939642 0.267657053887902 0  0.1219593081483571 0.2676478500095707 0  0.1198513827374996 0.2688464535562959 0  0.1317750379525063 0.265287458429423 0  0.1331750076981166 0.2652966623077515 0  0.1377875644346711 0.2638999999999386 0  0.1163434875810293 0.2700358532246915 0  0.118451412991892 0.2688372496779643 0  0.1149507485439573 0.2700266372862266 0  0.1134585311306469 0.2700944500357421 0  0.1121821219270822 0.2708393817977439 0  0.111 0.271600000000018 0  0.1303750682068972 0.2652782545510933 0  0.1254672033048224 0.2664584503411708 0  0.1205593384027503 0.2676386461312383 0  0.1352917554095784 0.2639990024913635 0  0.133841802791678 0.2640965862169854 0  0.1365751288693476 0.2631999999999238 0  0.1170514432462841 0.2688280457996333 0  0.139 0.2631999999999425 0  0.1289750984612889 0.2652690506727657 0  0.1275751287156804 0.2652598467944389 0  0.1261751589700724 0.2652506429161102 0  0.1240672335592163 0.2664492464628413 0  0.1226672638136089 0.2664400425845109 0  0.1212672940680019 0.26643083
[...]
<PointData  Vectors="f_30"> 
<DataArray  type="Float64"  Name="f_30"  NumberOfComponents="3" format="ascii">0.0000000000000000e+00 0.0000000000000000e+00 0.0000000000000000e+00  6.9350794605987771e-09 2.1110072646194210e-02 0.0000000000000000e+00  3.0970267150332406e-09 1.2342441646649670e-02 0.0000000000000000e+00  8.3438081828692965e-09 2.8656518190557385e-02 0.0000000000000000e+00  0.0000000000000000e+00 0.0000000000000000e+00 0.0000000000000000e+00  1.0815957930171731e-08 3.6749925653253440e-02 0.0000000000000000e+00  3.8538556418540490e-09 1.5547852591218119e-02 0.0000000000000000e+00  1.5626873178345193e-08 5.3284093145612520e-02 0.0000000000000000e+00  2.5742395352711537e-08 6.7794927616681405e-02 0.0000000000000000e+00  2.0018051696082025e-08 6.0403830076864243e-02 0.0000000000000000e+00  1.8053180361475023e-08 4.6138881552288201e-02 0.0000000000000000e+00  1.0279755551153076e-08 3.4303342987160416e-02 0.0000000000000000e+00  2.6407213520909981e-08 7.3434737468391936e-02 0.0000000000000000e+00  2.8582740443391432e-08 7.9134364065738358e-02 0.0000000000000000e+00  0.0000000000000000e+00 0.0000000000000000e+00 0.0000000000000000e+00  3.2909464541499393e-09 1.6401374006025562e-02 0.0000000000000000e+00  1.6500261196689924e-08 5.3426090370282286e-02 0.0000000000000000e+00  2.3969147373538477e-08 6.7553173573651024e-02 0.0000000000000000e+00  3.2512888549472574e-08 8.4859066281479448e-02 0.0000000000000000e+00  3.4772409209029034e-08 8.8970400398250674e-02 0.0000000000000000e+00  3.7953857946937162e-08 9.6680519108654897e-02 0.0000000000000000e+00  3.6087736252731841e-08 9.3637964405349175e-02 0.0000000000000000e+00  4.0481932665982146e-08 1.0176040587362246e-01 0.0000000000000000e+00  4.1703872093734373e-08 1.0000255192884473e-01 0.0000000000000000e+00  9.1148341703772107e-09 3.1498428633789780e-02 0.0000000000000000e+00  2.7254119956509542e-08 7.9951938480892631e-02 0.0000000000000000e+00  4.2857408879184103e-08 1.0416988704105618e-01 0.0000000000000000e+00  4.4405175295170216e-08 1.0512292108979901e-01 0.0000000000000000e+00  4.4153254181372889e-08 1.0625168680954934e-01 0.0000000000000000e+00  4.3310163950080426e-08 1.0585938188243804e-01 0.0000000000000000e+00  4.2560472987973119e-08 1.0499924076202617e-01 0.0000000000000000e+00  4.4777476803997901e-08 1.0594687067669378e-01 0.0000000000000000e+00  0.0000000000000000e+00 0.0000000000000000e+00 0.0000000000000000e+00  1.3658983341741517e-08 4.7623168848360743e-02 0.0000000000000000e+00  5.4372787146672081e-09 1.9236441424612935e-02 0.0000000000000000e+00  1.7843287356527257e-08 6.3492188902396482e-02 0.0000000000000000e+00  2.5343059797108147e-08 7.6112372714865553e-02 0.0000000000000000e+00  3.4291018203442138e-08 8.9849259484819269e-02 0.0000000000000000e+00  3.7615295845527493e-08 9.7791402879629633e-02 0.0000000000000000e+00  3.9525361740860005e-08 1.0257221671102768e-01 0.0000000000000000e+00  4.3057157882089001e-08 1.0400276330628372e-01 0.0000000000000000e+00  1.0011723933184460e-08 3.9450388780358267e-02 0.0000000000000000e+00  4.1281332633314244e-08 1.0193149258794627e-01 0.0000000000000000e+00  2.9240362166736628e-08 8.5899651966735810e-02 0.0000000000000000e+00  4.2765475034108702e-08 1.0541698956063356e-01 0.0000000000000000e+00  4.1882905049942146e-08 1.0623675905558055e-01 0.0000000000000000e+00  4.1698603574800533e-08 1.0526817924343744e-01 0.0000000000000000e+00  5.3129006646861574e-09 3.0586727171851784e-02 0.0000000000000000e+00  3.9431053405234609e-08 9.9262644239206152e-02 0.0000000000000000e+00  0.0000000000000000e+00 0.0000000000000000e+00 0.0000000000000000e+00  1.5406403673699631e-08 5.6403602098027153e-02 0.0000000000000000e+00  1.9357714889641790e-08 7.0151159321086010e-02 0.0000000000000000e+00  2.2791076936064094e-08 8.1356992658228169e-02 0.0000000000000000e+00  3.1934035719201072e-08 9.4250504673771718e-02 0.0000000000000000e+00  3.7466779270334681e-08 1.0056378520853165e-01 0.0000000000000000e+00  3.8545002388905304e-08 1.0448847951642390e-01 0.0000000000000000e+00  4.0409096396811191e-08 1.0286749950638500e-01 0.0000000000000000e+00  1.0156013649408915e-08 4.6910702233511244e-02 0.0000000000000000e+00  4.9016088524786931e-09 1.6183602799953130e-02 0.0000000000000000e+00  3.7301806469622637e-08 9.6658284927979496e-02 0.0000000000000000e+00  3.3757312541257232e-08 8.8822316577380531e-02 0.0000000000000000e+00  3.6457557521233446e-08 9.2252118374404349e-02 0.0000000000000000e+00  2.8829629054481131e-08 7.9297622928695771e-02 0.0000000000000000e+00  3.0050575480488918e-08 8.3625544247641820e-02 0.0000000000000000e+00  2.9747507882539623e-08 9.0744424689325767e-02 0.0000000000000000e+00  3.9204795008790664e-08 1.0595985839149576e-01 0.0000000000000000e+00  4.0642200611667762e-08 1.0567524490066647e-01 0.0000000000000000e+00  4.0173344739494421e-08 1.0452788999973728e-01 0.0000000000000000e+00  5.5694269698744723e-09 3.1578711520170173e-02 0.0000000000000000e+00  3.8717127080493381e-08 9.9694440926621941e-02 0.0000000000000000e+00  2.5878240650871365e-08 7.2272307984736245e-02 0.0000000000000000e+00  2.1547024146969440e-08 6.7808310790437323e-02 0.0000000000000000e+00  0.0000000000000000e+00 0.0000000000000000e+00 0.0000000000000000e+00  1.4578777357766321e-08 6.3426611621398565e-02 0.0000000000000000e+00  2.0946573465813459e-08 7.5981440392899127e-02 0.0000000000000000e+00  2.3840699363199587e-08 8.6408819895272770e-02 0.0000000000000000e+00  3.2166270081694314e-08 9.7879055435850529e-02 0.0000000000000000e+00  3.3841704626292063e-08 1.0258525779432826e-01 0.0000000000000000e+00  3.6850540662463796e-08 1.0554179605626282e-01 0.0000000000000000e+00  3.6808825536939125e-08 1.0303513502959845e-01 0.0000000000000000e+00  7.7978549050094486e-09 4.3319453831862705e-02 0.0000000000000000e+00  2.7308077162698855e-09 1.6208644666031721e-02 0.0000000000000000e+00  3.4888741598502644e-08 9.5373898508879867e-02 0.0000000000000000e+00  3.1301665872960633e-08 8.7127393989708340e-02 0.0000000000000000e+00  2.6806982008468752e-08 7.7128492610949603e-02 0.0000000000000000e+00  1.9971863291277635e-08 5.9241794144730534e-02 0.0000000000000000e+00  1.7923901992487063e-08 5.3151361785314939e-02 0.0000000000000000e+00  1.1185274409860066e-08 3.6829228928592458e-02 0.0000000000000000e+00  1.2724453292179701e-08 4.5810888805496601e-02 0.0000000000000000e+00  6.7030590630539890e-09 2.1065378355855379e-02 0.0000000000000000e+00  9.3228375934263060e-09 2.8308583572042949e-02 0.0000000000000000e+00  1.2024841849640365e-08 5.6351490764588459e-02 0.0000000000000000e+00  2.6289694212743688e-08 9.4348638603299340e-02 0.0000000000000000e+00  3.5814135650951635e-08 1.0617342028653440e-01 0.0000000000000000e+00  4.8367790181973643e-09 3.1734999466181073e-02 0.0000000000000000e+00  3.3891582756895475e-08 9.7915696705317107e-02 0.0000000000000000e+00  2.0442084394288674e-08 6.5435795658420781e-02 0.0000000000000000e+00  4.3287490319684946e-09 1.2333203020994435e-02 0.0000000000000000e+00  0.0000000000000000e+00 0.0000000000000000e+00 0.0000000000000000e+00  0.0000000000000000e+00 0.0000000000000000e+00 0.0000000000000000e+00  1.4851413405474541e-08 7.0005954878928828e-02 0.0000000000000000e+00  1.8101797772239538e-08 8.1252915688031641e-02 0.0000000000000000e+00  2.3338158076145173e-08 9.0660774759425661e-02 0.0000000000000000e+00  3.0967120905821627e-08 1.0054097436242281e-01 0.0000000000000000e+00  3.1767512271167566e-08 1.0443223807622905e-01 0.0000000000000000e+00  3.2197998371901192e-08 1.0592623701980408e-01 0.0000000000000000e+00  3.5269449338685499e-08 1.0449200812590122e-01 0.0000000000000000e+00  7.5333193070984235e-09 4.7642150107507476e-02 0.0000000000000000e+00  2.3208687871758944e-09 1.6227383089942874e-02 0.0000000000000000e+00  3.2226234819572485e-08 9.1490795955802520e-02 0.0000000000000000e+00  3.4024514626505642e-08 1.0102097817731730e-01 0.0000000000000000e+00  2.6119671319973882e-08 8.2474662917424210e-02 0.0000000000000000e+00  2.1526184015701763e-08 7.0842330256139854e-02 0.0000000000000000e+00  1.6091534620594422e-08 5.0871803285525083e-02 0.0000000000000000e+00  8.8206442443970127e-09 3.2729312818805076e-02 0.0000000000000000e+00  6.3731532841995205e-09 1.4982877846240512e-02 0.0000000000000000e+00  0.0000000000000000e+00 0.0000000000000000e+00 0.0000000000000000e+00  1.0606827038889160e-08 6.3282427587865828e-02 0.0000000000000000e+00  2.5308565274114895e-08 9.7804392961897996e-02 0.0000000000000000e+00  3.3170161996369045e-08 1.0572562634564157e-01 0.0000000000000000e+00  5.2210693619548748e-09 3.1926575976639233e-02 0.0000000000000000e+00  2.9633930028738902e-08 9.5213181367780980e-02 0.0000000000000000e+00  1.6730233112093114e-08 5.7720830180363454e-02 0.0000000000000000e+00  0.0000000000000000e+00 0.0000000000000000e+00 0.0000000000000000e+00  1.5195692119707540e-08 7.5871896541114023e-02 0.0000000000000000e+00  1.7799045066313571e-08 8.6284358133389735e-02 0.0000000000000000e+00  2.0053790326565339e-08 9.4266422041647771e-02 0.0000000000000000e+00  2.6819639724519172e-08 1.0252495189356164e-01 0.0000000000000000e+00  2.9434364724186903e-08 1.0554958598102848e-01 0.0000000000000000e+00  2.8669264324805396e-08 1.0618037370124191e-01 0.0000000000000000e+00  3.0696258387852947e-08 1.0311666415878371e-01 0.0000000000000000e+00  7.4460679610957572e-09 5.6769235515838075e-02 0.0000000000000000e+00  5.3445640819124056e-09 4.4632688537497245e-02 0.0000000000000000e+00  1.5530459438005527e-09 1.6175429482161500e-02 0.0000000000000000e+00  2.6186593468612224e-08 8.6971055135176126e-02 0.0000000000000000e+00  2.8225052493365057e-08 9.8171252305146173e-02 0.0000000000000000e+00  2.2626886254312753e-08 7.7180402090202299e-02 0.0000000000000000e+00  1.7173954370764278e-08 6.4823915157578016e-02 0.0000000000000000e+00  1.1594334562578928e-08 4.3081162767853592e-02 0.0000000000000000e+00  3.6731245707435342e-09 1.5635372704549531e-02 0.0000000000000000e+00  0.0000000000000000e+00 0.0000000000000000e+00 0.0000000000000000e+00  1.0736216302504672e-08 6.9834169951026370e-02 0.0000000000000000e+00  2.3673347478124057e-08 1.0050477983345378e-01 0.0000000000000000e+00  2.7848028792542631e-08 1.0446496866357016e-01 0.0000000000000000e+00  3.1968220442281462e-09 3.2147341377614623e-02 0.0000000000000000e+00  2.6220943881298906e-08 9.1599823554727733e-02 0.0000000000000000e+00  1.2193792411136491e-08 4.9900875909562978e-02 0.0000000000000000e+00  9.2706724542441146e-09 2.8152168997886150e-02 0.0000000000000000e+00  0.0000000000000000e+00 0.0000000000000000e+00 0.0000000000000000e+00  1.3324566321045044e-08 8.1105042538953551e-02 0.0000000000000000e+00  1.6935524688855997e-08 9.0574641817046428e-02 0.0000000000000000e+00  1.8533669548362734e-08 9.7719975200363490e-02 0.0000000000000000e+00  2.4347203020975935e-08 1.0438485376110447e-01 0.0000000000000000e+00  2.4628071258418681e-08 1.0589000863387676e-01 0.0000000000000000e+00  2.5463065342789372e-08 1.0576846678314675e-01 0.0000000000000000e+00  2.6999504717767856e-08 1.0111779222010346e-01 0.0000000000000000e+00  7.5152225094197802e-09 6.2996244184103309e-02 0.0000000000000000e+00  5.8902042759814526e-09 4.9354867355778841e-02 0.0000000000000000e+00  1.2608541949239606e-09 1.5122896789413367e-02 0.0000000000000000e+00  2.1118116549816430e-08 8.2496310786440263e-02 0.0000000000000000e+00  2.3489763885132510e-08 9.5268920074986274e-02 0.0000000000000000e+00  1.7336852895070529e-08 7.0925169859344994e-02 0.0000000000000000e+00  1.3390603005290751e-08 5.8153409093507094e-02 0.0000000000000000e+00  7.4845038332154420e-09 3.4665237559055116e-02 0.0000000000000000e+00  1.5146879003517329e-09 1.6266149186315821e-02 0.0000000000000000e+00  0.0000000000000000e+00 0.0000000000000000e+00 0.0000000000000000e+00  1.0088966169024744e-08 7.5735346487300556e-02 0.0000000000000000e+00  1.9680591450555027e-08 1.0246509215221519e-01 0.0000000000000000e+00  2.3527808898344207e-08 1.0315513964245049e-01 0.0000000000000000e+00  3.3824604869904955e-09 4.1038222981895418e-02 0.0000000000000000e+00  2.5525430344680326e-09 2.7267667117326460e-02 0.0000000000000000e+00  2.0547645181296496e-08 8.7031131354065483e-02 0.0000000000000000e+00  8.4700848005914586e-09 4.2316823955160697e-02 0.0000000000000000e+00  0.0000000000000000e+00 0.0000000000000000e+00 0.0000000000000000e+00  1.2380802516800976e-08 8.6167094021904950e-02 0.0000000000000000e+00  1.3987430725519101e-08 9.4172052173857088e-02 0.0000000000000000e+00  1.6624137437432736e-08 1.0046038081341949e-01 0.0000000000000000e+00  2.1722205011580764e-08 1.0554877462020193e-01 0.0000000000000000e+00  2.1201233559905405e-08 1.0617695835217243e-01 0.0000000000000000e+00  2.0376987617429493e-08 1.0445647036871578e-01 0.0000000000000000e+00  2.1504827144823993e-08 9.8189622725196379e-02 0.0000000000000000e+00  7.5048818473962369e-09 6.9765882878762703e-02 0.0000000000000000e+00  4.8910419505720416e-09 5.6104588307446968e-02 0.0000000000000000e+00  -2.9735915109192978e-11 1.5393242465286838e-02 0.0000000000000000e+00  1.7338171523014871e-08 7.7373466061025617e-02 0.0000000000000000e+00  1.9698058212237913e-08 9.1725758939934912e-02 0.0000000000000000e+00  1.2514150329545343e-08 6.4916945006548890e-02 0.0000000000000000e+00  9.6998324540047200e-09 5.0027698306381180e-02 0.0000000000000000e+00  5.3298958951901833e-09 2.4760843662030955e-02 0.0000000000000000e+00  0.0000000000000000e+00 0.0000000000000000e+00 0.0000000000000000e+00  8.6355286909098201e-09 8.0981073245007557e-02 0.0000000000000000e+00  1.7222773180130899e-08 1.0433990110907153e-01 0.0000000000000000e+00  1.9816842382077022e-08 1.0120491268311389e-01 0.0000000000000000e+00  3.7212334020047047e-09 4.9192463614295821e-02 0.0000000000000000e+00  9.1922633736145873e-10 3.2463922794239423e-02 0.0000000000000000e+00  1.5844293972093967e-08 8.2585885518157875e-02 0.0000000000000000e+00  7.2437601459916232e-09 3.5179241413815822e-02 0.0000000000000000e+00  2.4931957331921225e-09 1.1290654151977912e-02 0.0000000000000000e+00  0.0000000000000000e+00 0.0000000000000000e+00 0.0000000000000000e+00  1.1159429256853720e-08 9.0490322189224995e-02 0.0000000000000000e+00  1.2486256036806423e-08 9.7635955416774750e-02 0.0000000000000000e+00  1.3073104681107340e-08 1.0240753579445595e-01 0.0000000000000000e+00  1.7296947885414371e-08 1.0586016801938893e-01 0.0000000000000000e+00  1.7958074946073490e-08 1.0580923513268874e-01 0.0000000000000000e+00  1.6555162981878756e-08 1.0318781577861039e-01 0.0000000000000000e+00  1.7170877787374920e-08 9.5337714158466147e-02 0.0000000000000000e+00  6.7941181727865287e-09 7.5614109215119268e-02 0.0000000000000000e+00  4.2381210255567105e-09 6.3103406195598816e-02 0.0000000000000000e+00  2.1044923972980451e-09 1.6037997330883923e-02 0.0000000000000000e+00  1.3002745186784323e-08 7.1037666995969029e-02 0.0000000000000000e+00  1.4788009497933317e-08 8.7092460589803508e-02 0.0000000000000000e+00  9.9430077860783014e-09 5.8244636525912628e-02 0.0000000000000000e+00  5.5128334855663718e-09 4.3082086406036557e-02 0.0000000000000000e+00  4.3115775137689492e-09 1.6658114493430822e-02 0.0000000000000000e+00  0.0000000000000000e+00 0.0000000000000000e+00 0.0000000000000000e+00  8.1387616032339960e-09 8.6045117010438474e-02 0.0000000000000000e+00  1.4555136785121794e-08 1.0554590601180064e-01 0.0000000000000000e+00  1.4953392719132680e-08 9.8217626714894174e-02 0.0000000000000000e+00  3.7324710389137585e-09 5.6471282503348215e-02 0.0000000000000000e+00  2.7613138768683659e-09 4.3447356327533250e-02 0.0000000000000000e+00  -3.4783339528553691e-10 3.1867208054061007e-02 0.0000000000000000e+00  1.2450375011168121e-08 7.7484676363927696e-02 0.0000000000000000e+00  3.9688508104943729e-09 2.8544091146706949e-02 0.0000000000000000e+00  0.0000000000000000e+00 0.0000000000000000e+00 0.0000000000000000e+00  8.5301872509032070e-09 9.4086419090746137e-02 0.0000000000000000e+00  1.0371369970326685e-08 1.0041673038586038e-01 0.0000000000000000e+00  1.0959732242782970e-08 1.0429360097177733e-01 0.0000000000000000e+00  1.4263017322574443e-08 1.0617040663724386e-01 0.0000000000000000e+00  1.3513899837153327e-08 1.0445890158288804e-01 0.0000000000000000e+00  1.3195462322933328e-08 1.0128764746525545e-01 0.0000000000000000e+00  1.3657424787679857e-08 9.1843103266491491e-02 0.0000000000000000e+00  4.2857730146724221e-09 8.0871033241723900e-02 0.0000000000000000e+00  4.8096331557008389e-09 6.9522913957805244e-02 0.0000000000000000e+00  4.5949093388794367e-10 1.6302756482606411e-02 0.0000000000000000e+00  8.9759483877054860e-09 6.5033445099586903e-02 0.0000000000000000e+00  1.0917882029500929e-08 8.2698157447028159e-02 0.0000000000000000e+00  6.7030481894764769e-09 5.0316630874686886e-02 0.0000000000000000e+00  4.1669681742809703e-09 3.2875190722350581e-02 0.0000000000000000e+00  2.8034717482200014e-09 1.5973103310003699e-02 0.0000000000000000e+00  0.0000000000000000e+00 0.0000000000000000e+00 0.0000000000000000e+00  6.2814084332738592e-09 9.0408885262893299e-02 0.0000000000000000e+00  1.0801146886615127e-08 1.0583597410632156e-01 0.0000000000000000e+00  1.1351808283107246e-08 9.5403661758697592e-02 0.0000000000000000e+00  1.0694933988580071e-09 4.7888890310114535e-02 0.0000000000000000e+00  1.8473853522646577e-09 6.3139029651830755e-02 0.0000000000000000e+00  3.1181229785179786e-09 3.2390298976577789e-02 0.0000000000000000e+00  8.6091131312593299e-09 7.1167569034773448e-02 0.0000000000000000e+00  0.0000000000000000e+00 0.0000000000000000e+00 0.0000000000000000e+00  7.4772900037016708e-09 9.7548998683001945e-02 0.0000000000000000e+00  7.4919806322077138e-09 1.0235513116214227e-01 0.0000000000000000e+00  8.4353504819674957e-09 1.0554155469854405e-01 0.0000000000000000e+00  1.1286385925617949e-08 1.0584731078743650e-01 0.0000000000000000e+00  1.0371077951149933e-08 1.0321687061680601e-01 0.0000000000000000e+00  9.1578701418585964e-09 9.8258139211970699e-02 0.0000000000000000e+00  9.4962781927340807e-09 8.7163152233538682e-02 0.0000000000000000e+00  4.6223936863164621e-09 8.5910495392150912e-02 0.0000000000000000e+00  3.1982646479026495e-09 7.5492996292965533e-02 0.0000000000000000e+00  -7.3742858817796806e-10 1.6299446857034394e-02 0.0000000000000000e+00  6.5406159818704125e-09 5.8289579973939971e-02 0.0000000000000000e+00  8.0395765923724024e-09 7.7647161658483538e-02 0.0000000000000000e+00  4.1824684759729173e-09 4.2918660170203814e-02 0.0000000000000000e+00  1.7732200417786625e-09 1.6249666435450030e-02 0.0000000000000000e+00  0.0000000000000000e+00 0.0000000000000000e+00 0.0000000000000000e+00  4.3081133885653399e-09 9.4006315061467088e-02 0.0000000000000000e+00  8.3119321294105209e-09 1.0616223408117414e-01 0.0000000000000000e+00  8.4125362401246158e-09 9.1974180082762813e-02 0.0000000000000000e+00  1.5101958878556289e-09 5.8274383612825248e-02 0.0000000000000000e+00  3.1532880597752174e-09 6.9333532118391022e-02 0.0000000000000000e+00  -2.6008585369435426e-10 4.6638972625931432e-02 0.0000000000000000e+00  -7.0541174136394214e-11 3.2293953618117849e-02 0.0000000000000000e+00  5.8897268535157036e-09 6.5173487768506608e-02 0.0000000000000000e+00  2.4783604819569937e-09 2.8274028369934621e-02 0.0000000000000000e+00  0.0000000000000000e+00 0.0000000000000000e+00 0.0000000000000000e+00  5.3125621230610497e-09 1.0037199496993869e-01 0.0000000000000000e+00  5.7424943952289437e-09 1.0424617722024274e-01 0.0000000000000000e+00  5.4184167764214944e-09 1.0581717903836715e-01 0.0000000000000000e+00  7.6597228155213772e-09 1.0446927007382498e-01 0.0000000000000000e+00  7.5472826706805655e-09 1.0136816627085360e-01 0.0000000000000000e+00  6.4314685887119156e-09 9.5465279175319800e-02 0.0000000000000000e+00  6.6612779419867393e-09 8.2789142013824563e-02 0.0000000000000000e+00  2.5009629292653532e-09 9.0315490367980603e-02 0.0000000000000000e+00  1.9093474577018442e-09 8.0768398505920894e-02 0.0000000000000000e+00  8.0441523105496356e-10 1.6305550372246947e-02 0.0000000000000000e+00  3.8326184986446640e-09 5.0391649580448540e-02 0.0000000000000000e+00  4.80887